ITEM: TIMESTEP
60000
ITEM: NUMBER OF ATOMS
92482
ITEM: BOX BOUNDS pp pp pp
-2.0000000000000000e+02 2.0000000000000000e+02
-2.0000000000000000e+02 2.0000000000000000e+02
-2.0000000000000000e+02 2.0000000000000000e+02
ITEM: ATOMS id c_1 c_2 
45246 36.2114 128.642 
46248 358.623 59.6846 
43241 47.058 22.3449 
48252 178.204 47.7193 
43239 105.341 105.177 
45745 135.816 218.006 
46245 25.4217 101.096 
44742 193.246 200.27 
45744 133.789 273.153 
48250 111.724 199.182 
44741 219.678 141.111 
45241 197.22 49.9765 
45743 158.499 57.0846 
47246 140.774 686.514 
49249 29.4369 164.548 
45742 128.654 11.6807 
47747 229.502 746.555 
48248 85.5631 64.8201 
44238 91.3255 63.4882 
46744 294.357 60.5333 
48247 141.163 58.7753 
49248 46.6383 54.9123 
47244 124.022 203.224 
44738 244.189 319.939 
46743 81.9829 36.3164 
47745 180.651 241.49 
44737 446.567 84.8325 
45739 190.617 61.3738 
46742 78.4889 28.3797 
43233 43.4824 20.6335 
46239 12.0948 35.5558 
47242 82.8269 124.491 
45236 152.433 285.919 
47743 373.215 116.488 
45235 184.874 107.289 
45253 207.66 37.4161 
45755 66.9727 105.461 
46758 29.237 33.7576 
46255 15.1099 72.1414 
42748 115.873 141.169 
43248 184.479 87.2678 
47758 92.5369 108.531 
48760 19.8785 47.7143 
42247 67.5497 11.5855 
43247 40.4032 85.9902 
44751 185.873 420.077 
49259 209.544 17.2443 
50259 234.06 70.1135 
42747 213.201 71.1391 
43246 201.218 84.5385 
44750 231.599 144.249 
46252 99.0121 54.4008 
47757 211.818 220.049 
41747 186.687 64.687 
42246 182.937 26.1526 
44247 180.705 198.784 
45751 98.3041 655.923 
46754 267.121 322.378 
47255 172.918 203.592 
48256 59.7838 50.1977 
48758 83.8731 23.9027 
43245 171.07 37.8107 
44748 192.944 431.418 
45249 212.297 397.996 
46251 102.185 415.06 
47254 225.607 250.726 
47755 265.766 165.993 
49257 236.668 70.5094 
40749 80.3064 95.5109 
43244 282.363 132.057 
44246 214.925 328.927 
45750 137.186 564.516 
46250 124.275 112.586 
48255 99.5465 98.6472 
49256 229.05 39.7847 
41246 70.9223 45.5726 
42744 241.808 73.5028 
43745 103.016 153.753 
45749 31.7748 226.061 
48756 182.523 30.3934 
49756 91.3549 11.7839 
50255 15.1275 40.2969 
41245 8.65049 39.1538 
42743 37.9067 130.249 
43243 222.65 81.1124 
44746 38.4492 24.98 
45247 67.8865 122.187 
45748 68.0749 170.1 
46249 112.231 55.7643 
47252 97.9977 90.8325 
47753 75.1285 82.4862 
48254 243.648 104.055 
48755 114.91 101.992 
49255 126.524 40.8112 
49755 55.2099 43.0167 
51254 139.068 219.215 
43242 30.8973 4.76824 
44244 104.976 57.6958 
48253 183.992 68.1628 
50254 10.7401 44.5968 
51253 14.9348 225.32 
40746 34.0222 105.847 
41244 42.0443 64.8203 
42242 84.6062 44.7854 
43743 112.859 14.3632 
44745 53.9898 175.831 
45747 336.106 78.5601 
46750 188.711 46.9641 
47250 114.154 56.5828 
47752 129.992 69.9113 
48754 230.277 99.7843 
49754 226.654 32.6564 
50754 31.2831 5.02861 
51752 4.75485 215.634 
39750 137.637 226.912 
40247 39.4059 111.557 
41243 117.233 133.367 
43742 157.368 483.577 
44243 59.7595 221.627 
45245 100.252 91.5351 
46247 127.812 89.2112 
46749 277.59 36.277 
47751 186.821 56.8939 
48753 317.884 65.9565 
49253 195.715 34.0452 
49753 84.4599 36.7126 
51252 94.5357 219.303 
41741 14.8153 145.932 
43240 110.189 430.903 
43741 121.355 176.373 
44242 275.618 313.527 
44744 353.275 77.9188 
45244 314.938 84.5616 
45746 143.236 133.642 
46246 56.7899 177.551 
47249 161.27 204.845 
48251 186.737 57.665 
49252 62.5737 13.5949 
50252 42.4801 50.7841 
51251 90.9786 55.5612 
52247 493.365 123.489 
40245 16.8856 13.9431 
40744 14.4031 15.5273 
42239 132.813 92.3049 
42740 110.411 264.107 
47248 216.552 119.945 
47750 329.51 166.773 
48752 278.772 77.1076 
49752 61.2706 32.9359 
50251 14.4707 55.2714 
51750 73.3573 178.291 
52246 242.304 158.084 
52744 80.6893 137.839 
39251 265.538 78.0943 
40743 26.8926 402.127 
41241 79.3357 214.129 
42739 101.115 59.1624 
43740 120.975 6.88857 
45243 278.721 393.741 
46747 225.408 100.292 
47749 414.13 104.465 
49251 18.9455 24.0656 
49751 147.96 100.271 
50751 70.2705 63.6731 
41240 49.4661 243.171 
42238 99.1469 30.5616 
43238 103.225 24.9877 
44240 26.6685 101.106 
45242 147.037 312.871 
46244 30.8164 194.893 
47247 243.631 126.643 
48249 262.473 154.488 
49250 100.652 102.023 
50250 96.5657 193.505 
51249 47.1758 101.889 
40742 108.865 408.338 
41739 93.6218 19.7848 
42738 87.2284 94.8397 
43237 73.8003 122.238 
43739 67.8404 33.6119 
46243 102.439 85.1644 
47748 245.952 232.902 
48750 55.174 151.251 
49750 54.0641 158.01 
52742 87.9231 42.1842 
39746 6.90611 73.9995 
41239 182.471 21.133 
42737 103.356 72.9553 
43738 157.772 62.9929 
44239 113.836 48.653 
44740 138.364 56.2335 
47245 162.724 427.595 
49749 28.084 172.384 
50249 44.7203 238.158 
50749 288.785 156.495 
51747 149.599 79.3322 
39745 8.22629 52.3496 
42236 185.824 74.5966 
42736 63.6864 43.0702 
45240 67.9714 50.0373 
45741 279.954 169.243 
46242 105.417 110.025 
51247 89.6146 55.597 
52740 11.7585 96.9024 
41237 221.105 191.569 
42235 178.712 30.7236 
43737 205.737 43.9727 
44237 86.5262 391.54 
44739 219.373 145.115 
46241 46.4124 30.392 
47746 209.203 231.505 
48748 45.6595 97.1501 
49247 255.645 39.1246 
50247 266.365 109.592 
52242 112.886 220.784 
41236 87.195 74.9265 
41736 63.3629 179.831 
42735 82.7999 7.88076 
43234 76.3304 48.7299 
45239 246.608 234.229 
45740 214.848 183.637 
47243 121.552 74.0254 
48245 75.2892 599.408 
49747 28.0467 33.4425 
50246 136.116 140.966 
50747 223.062 254.563 
51246 238.163 233.646 
40738 35.4723 17.8606 
41735 57.3609 122.726 
42234 170.051 161.805 
42734 54.9842 22.6351 
43735 285.591 102.037 
44236 214.876 236.372 
45238 152.21 89.1178 
46240 73.7681 38.1535 
47744 178.382 331.921 
48746 56.1145 293.508 
49246 148.757 30.1423 
49746 137.691 220.909 
50746 55.9382 114.224 
41235 26.9109 107.673 
44235 456.614 251.804 
48244 98.8741 83.8888 
49245 185.757 108.469 
50245 105.547 148.922 
40737 22.7252 45.553 
41734 23.1012 103.628 
42733 206.867 22.2329 
43734 101.288 44.2792 
44736 193.248 178.436 
45738 79.9531 150.43 
46238 1.03726 56.612 
46741 79.7446 83.1373 
47241 188.87 104.408 
48243 340.616 112.041 
48745 211.531 88.8482 
49745 171.307 133.21 
50745 2.4393 100.222 
51243 9.26645 12.2854 
41234 18.7264 75.1061 
41733 41.5304 22.5505 
43232 177.648 21.5618 
43733 88.6593 49.2072 
44234 281.829 170.588 
44735 199.62 61.103 
45737 124.875 35.0935 
47742 100.097 98.7257 
49244 114.731 37.9346 
43231 48.8886 43.4277 
44233 132.124 108.793 
44734 295.21 154.806 
45736 52.9067 9.60488 
47240 64.5325 15.7395 
48242 90.0902 45.7127 
49744 187.008 68.5833 
50243 89.812 191.756 
51242 18.6889 25.004 
42230 288.409 146.821 
43732 90.3812 45.9431 
45234 249.968 80.5559 
46236 26.0473 56.6074 
46739 101.886 16.502 
47239 117.773 53.2983 
48743 91.9659 126.728 
49242 167.475 199.823 
50242 97.7369 170.221 
51241 11.3036 26.0366 
41731 36.036 227.235 
44231 75.9706 29.4514 
44733 172.349 156.304 
45233 77.9059 59.8122 
46235 16.0599 48.343 
46738 65.391 80.9932 
47740 333.739 137.341 
48742 47.9086 99.7588 
49742 66.6217 90.9226 
41730 19.5785 107.981 
43730 93.8279 52.371 
47238 299.249 37.8932 
49241 106.224 67.9759 
50241 96.916 134.507 
42228 75.2369 29.9728 
44230 105.492 43.8645 
44732 183.923 44.2435 
45232 96.7261 70.5464 
46234 14.6993 25.1922 
46737 42.6543 35.7435 
48741 45.8383 47.5874 
42728 96.8191 42.7893 
43729 156.581 82.1528 
50239 63.3844 13.0167 
45732 98.0098 48.2498 
47236 161.173 43.8014 
47737 204.036 116.033 
43226 49.4091 36.7485 
46232 5.21321 102.779 
48237 171.187 68.7774 
46733 80.8679 23.973 
46258 7.491 282.749 
48765 155.135 12.5529 
43252 112.651 65.9468 
45757 113.977 253.353 
47261 133.553 69.8176 
48263 255.007 69.4773 
43251 49.4877 60.496 
43753 62.2443 73.668 
45255 372.316 101.106 
46257 5.12575 261.908 
46760 54.5363 323.633 
47762 138.985 78.2952 
48262 223.646 120.339 
43752 54.1039 23.2771 
44754 200.195 47.9756 
45756 86.8509 48.1931 
46759 82.699 49.4492 
47761 226.085 118.955 
49263 94.9316 181.321 
49763 181.738 209.213 
42250 38.9635 9.02083 
42751 171.222 85.3183 
44753 274.122 47.6798 
45254 116.947 70.8447 
46256 7.73472 60.7237 
47259 167.245 24.6123 
48261 314.106 138.947 
48762 19.0676 12.1583 
50763 46.6952 127.545 
42249 166.517 110.556 
43751 26.4019 36.8925 
44251 177.625 37.149 
47258 89.7636 30.4519 
48260 178.532 111.277 
49261 240.628 47.9435 
49762 249.858 144.718 
50261 259.021 65.4062 
52256 77.6648 373.387 
40753 10.4727 15.6072 
42749 336.65 208.935 
43750 50.2481 7.37976 
44752 305.813 225.3 
45754 226.865 167.435 
46757 110.421 31.4342 
47759 55.7527 70.8492 
48761 20.5734 125.268 
49761 158.83 88.8763 
51260 118.545 66.2071 
51759 58.1272 66.1172 
41250 22.0087 44.8926 
42248 183.518 16.1536 
44250 141.339 30.5336 
45252 199.833 449.202 
46254 152.203 90.4358 
48259 102.755 103.769 
49260 95.6161 5.75903 
50260 98.8659 37.8655 
51259 106.071 17.7273 
52255 124.559 261.433 
39259 8.63945 112.098 
40752 10.5756 40.0449 
41249 74.9473 65.5128 
43749 55.046 45.6946 
44249 148.191 114.512 
45251 129.33 155.423 
46253 60.9855 152.029 
47256 79.7081 10.6681 
48258 81.521 145.629 
49760 282.25 84.398 
51258 124.168 48.6784 
52752 7.29283 23.7467 
39258 29.2844 41.9894 
39756 28.1209 124.256 
40252 212.782 212.376 
40751 92.2485 59.5336 
41748 134.913 84.639 
43748 53.8152 116.93 
45752 131.29 76.6861 
46755 249.512 133.739 
48257 97.8529 42.6679 
48759 46.9157 70.7536 
49759 294.328 51.4494 
50759 91.171 54.3594 
52254 256.354 120.134 
52751 11.2296 48.407 
53247 32.0566 267.476 
41248 134.442 53.6984 
42746 174.652 47.5803 
44248 117.845 166.878 
44749 160.725 173.797 
45250 198.055 39.8009 
47756 267.667 174.013 
49258 275.494 63.0808 
50258 251.559 35.1107 
51257 178.256 177.919 
51756 45.5063 185.317 
39257 207.728 173.559 
40251 21.1889 212.871 
41247 316.308 85.9038 
42245 132.226 70.67 
43747 16.8315 28.3316 
46753 222.179 65.6278 
49758 184.758 115.121 
51256 114.909 350.788 
52252 132.556 166.844 
52750 27.4126 21.7508 
53245 60.0217 25.3794 
39754 75.4807 41.7638 
41746 172.533 81.2636 
42244 230.007 22.2557 
42745 250.66 39.4026 
43746 45.6307 177.391 
45248 209.527 404.285 
47253 210.639 81.7686 
48757 93.6326 14.8448 
49757 139.629 139.461 
50256 85.1122 27.1243 
50757 14.874 27.5672 
51755 59.4237 265.978 
38761 91.6125 131.508 
39753 65.4115 119.181 
40250 21.5747 240.223 
40748 25.1194 74.0494 
41745 78.3743 43.8639 
44245 157.369 62.0949 
44747 40.0135 247.871 
46752 59.3035 79.3207 
47754 250.381 220.89 
50756 38.3495 12.8609 
51255 129.618 81.8235 
51754 64.2933 81.3915 
52251 58.0325 38.7556 
53244 217.219 102.229 
37773 46.4002 76.5196 
39255 199.813 189.679 
40249 26.9657 51.939 
42243 255.541 63.7502 
43744 121.253 83.271 
50755 39.8858 46.4479 
52748 58.7408 150.121 
53243 73.1589 80.2873 
54233 56.7414 43.4272 
37772 128.601 94.6384 
38760 71.3943 23.8453 
39752 149.65 81.4606 
40248 50.8233 40.3489 
40747 27.5102 91.8052 
41744 19.5899 32.0893 
46751 311.445 115.592 
47251 28.8569 87.4597 
49254 63.5214 65.2141 
51753 24.7377 45.993 
52249 248.552 45.9134 
53739 132.124 355.81 
39751 113.917 72.6037 
41743 6.25851 23.3461 
42241 113.426 54.0003 
42742 78.1104 73.8443 
53242 30.6882 5.66472 
54232 44.6602 432.814 
40745 17.0715 91.6732 
41742 6.52434 78.7202 
42741 123.855 108.283 
50253 176.545 18.5296 
50753 4.56169 50.7343 
52248 476.949 37.3206 
52745 82.7161 85.8704 
53241 33.2758 19.124 
54231 38.1058 92.9818 
38262 254.425 253.885 
38758 47.3716 198.863 
39252 70.0923 222.984 
39749 158.337 63.129 
40246 37.6107 101.004 
41242 118.314 72.7792 
42240 157.713 112.337 
51751 79.7849 70.8899 
53737 108.917 63.9728 
54725 153.234 140.298 
37276 233.818 157.589 
37769 85.2302 224.064 
38757 109.655 147.472 
44743 248.595 249.974 
46748 249.766 17.2687 
50752 21.4074 35.8381 
53240 56.9909 89.0001 
53736 96.1417 19.2193 
38261 118.376 182.676 
38756 265.688 100.408 
39748 186.613 24.7821 
41740 86.9431 32.0713 
44241 193.406 187.753 
48751 211.273 209.965 
51250 88.2394 97.8802 
51749 85.5485 192.763 
52743 47.9471 78.3773 
53239 159.904 80.9352 
54229 86.6004 92.9623 
54723 197.362 123.066 
38260 84.9895 70.6153 
39250 348.224 68.8689 
40244 49.685 591.042 
46746 294.11 390.514 
52245 12.5264 35.3403 
53238 81.3721 142.404 
53735 178.995 70.6819 
54228 148.957 130.613 
55214 138.999 78.7431 
38755 118.456 43.4959 
39249 172.206 95.5493 
39747 190.23 185.181 
42237 77.7159 37.1251 
50750 139.91 125.479 
51748 133.185 95.8692 
53734 185.509 171.705 
54722 129.093 179.144 
38259 104.125 129.315 
40741 81.6952 137.79 
41738 86.0877 23.5189 
46745 327.463 311.581 
48749 71.1061 49.7714 
51248 41.6142 50.0738 
52244 111.214 66.2686 
53237 114.943 114.522 
54227 63.2378 178.111 
54721 212.564 264.392 
37766 171.578 152.31 
38258 46.1052 195.452 
38754 167.395 217.901 
39248 40.2106 181.708 
40242 25.0431 105.026 
40740 32.56 160.607 
41238 264.298 157.126 
43236 74.3044 38.0826 
50248 145.312 34.144 
51746 175.453 75.8324 
52243 129.634 59.3019 
52741 44.9813 150.015 
53236 39.3469 58.3096 
53733 227.795 156.36 
54226 76.1707 212.222 
55212 70.057 88.406 
37765 35.6584 247.377 
39247 16.2425 36.0309 
41737 58.3803 36.3744 
43235 52.47 46.2101 
48246 69.5209 309.011 
49748 138.238 69.432 
50748 293.921 57.7134 
53732 127.037 107.958 
38752 84.4709 44.7921 
39744 163.352 31.5556 
40739 20.3476 86.8123 
43736 294.477 74.54 
48747 31.1124 282.922 
51745 130.017 173.116 
52739 51.9148 136.193 
53235 59.1224 32.6453 
38256 9.52087 22.466 
39246 98.3659 121.113 
39743 282.061 33.0681 
40240 86.4541 70.7803 
51245 116.021 132.302 
52241 103.637 214.376 
52738 69.311 59.9338 
53234 99.4083 83.2355 
53730 198.415 187.448 
38751 50.2867 58.1204 
39245 105.12 88.4521 
40239 71.2217 64.3515 
42233 83.8762 105.225 
45237 304.307 318.839 
51244 74.4559 89.2687 
53233 195.264 223.139 
54223 65.3428 84.9619 
39742 218.704 72.8495 
40238 29.9854 99.6571 
42232 371.475 132.549 
50244 75.1338 70.5156 
51743 2.10086 104.054 
52737 216.751 87.083 
53729 27.4172 79.3867 
38254 25.1614 116.887 
38749 28.3618 85.4689 
39244 140.434 211.126 
39741 88.9939 65.5187 
40736 10.5798 74.3948 
42732 82.3736 73.2462 
46740 98.7049 95.2585 
48744 68.7936 37.8515 
50744 2.21726 55.2686 
51742 21.0793 14.1072 
52736 95.9471 55.5005 
53232 55.8008 92.5433 
53728 22.5754 57.8875 
54222 32.1553 56.5138 
39243 40.7226 196.511 
40237 6.93227 209.178 
41233 24.1189 190.985 
42231 277.76 141.507 
42731 171.267 56.9439 
46237 3.59717 27.3042 
49243 146.446 90.894 
50743 7.36929 47.6442 
52238 51.1694 37.0876 
38748 24.5684 29.5924 
39740 7.44622 24.8095 
40236 13.2953 228.906 
40735 10.1597 203.226 
41232 52.409 200.434 
41732 44.2739 126.571 
43230 100.8 32.3256 
44232 243.267 93.1107 
47741 156.607 50.0497 
48241 153.583 108.465 
49743 151.79 117.828 
52237 113.645 50.6416 
39739 17.4778 12.7727 
40734 48.1948 150.249 
41231 29.4878 39.69 
42730 147.901 42.4922 
43731 79.3982 12.201 
45735 71.6443 20.8141 
50742 53.1426 46.8002 
51240 59.2272 13.3363 
51740 56.608 52.9925 
39241 50.8507 13.6568 
40235 23.7471 43.953 
40733 26.0269 25.8 
42229 118.154 44.8743 
42729 138.292 55.8305 
43229 94.5299 21.0692 
45734 107.396 30.0082 
47739 154.204 18.7544 
48240 282.068 95.7989 
49741 71.4235 44.3954 
50741 54.7931 34.9059 
51739 24.8029 107.087 
52236 70.1406 65.2871 
53725 48.944 28.2351 
40234 21.8415 7.01166 
43228 92.8283 11.8188 
45733 92.5488 33.5576 
47237 96.5183 18.376 
48239 100.27 40.8794 
49240 157.752 52.0037 
49740 51.8945 18.875 
50240 85.8018 56.5168 
52235 35.5252 8.06238 
53228 20.7029 20.6868 
41729 30.7993 25.0194 
42227 87.7276 37.2833 
44229 171.928 39.967 
44731 223.808 94.2203 
45231 93.9912 58.7185 
46233 18.4164 32.2874 
46736 74.5869 20.1885 
47738 217.594 51.0783 
48238 155.754 123.556 
48740 39.6436 10.7968 
49239 141.267 23.2897 
50740 61.7195 14.7405 
51738 26.4106 129.359 
52732 7.90226 52.3493 
40731 16.5532 42.6991 
41728 29.2587 72.5413 
42727 53.0558 13.6866 
43227 96.6888 63.5932 
43728 70.4909 34.6104 
44730 114.974 48.4992 
46735 61.594 25.9376 
48739 116.092 9.43771 
49739 50.9493 28.0817 
50739 68.8131 6.06396 
51737 62.9334 104.28 
52234 24.9506 41.2518 
41228 26.1814 120.644 
44228 90.4426 39.8135 
45230 82.9151 22.6446 
47235 76.8772 7.05087 
49238 137.221 18.4466 
50238 38.2181 4.96709 
40231 15.0778 75.7182 
42726 54.2898 20.8433 
43225 86.8558 4.86596 
43727 70.3263 58.4915 
44227 97.0623 34.6759 
44729 113.462 46.1197 
45229 73.0472 28.4747 
45731 73.1177 23.4875 
46231 10.9759 9.8195 
46734 99.8671 92.2058 
47234 122.277 73.051 
47736 184.9 52.5803 
48738 68.5886 21.2125 
49237 127.168 22.2111 
49738 66.0035 30.056 
51236 50.5395 23.9635 
51736 9.72235 49.2217 
40729 7.15358 2.1702 
42224 43.2295 4.60945 
44728 163.035 40.994 
47735 117.747 23.0049 
48236 129.868 61.1926 
48737 74.0263 7.73371 
50737 68.6602 24.8324 
43725 101.076 26.4873 
44226 113.947 23.8721 
46230 46.6916 27.6146 
46732 137.604 27.5852 
47734 129.144 11.8102 
48235 99.8198 47.3643 
42223 38.761 12.3252 
44225 121.381 24.2055 
44727 243.853 108.967 
46229 42.9353 38.6713 
48234 112.734 23.3294 
49235 82.097 13.2241 
50736 20.6898 22.3035 
42723 56.2657 32.1824 
44726 111.275 60.5206 
45226 135.977 29.2697 
46731 110.488 23.9711 
44725 100.68 34.7936 
47231 112.422 39.6414 
46262 41.4935 84.397 
43757 58.5872 40.0799 
45761 143.833 76.6835 
46764 33.716 70.9938 
47766 121.553 55.0789 
43255 102.881 38.1277 
45259 78.5483 14.5617 
47264 46.6317 86.6234 
49267 14.1911 64.6763 
41756 5.23062 41.8367 
43254 73.5137 61.3332 
43756 94.8046 57.7649 
44758 196.343 33.4821 
46763 94.2746 23.1772 
47263 177.497 68.2194 
48265 160.568 90.4208 
50266 143.37 41.7561 
50767 2.48103 65.7949 
51265 22.57 44.971 
44255 234.566 167.332 
44757 303.569 250.969 
45758 75.4811 219.585 
46762 85.6553 14.9517 
48766 103.575 24.556 
50766 2.69758 21.0348 
52261 10.8405 108.432 
40757 74.3409 87.7851 
41255 84.8352 35.0001 
42753 124.79 183.54 
43253 142.003 150.902 
43754 109.699 88.0944 
44756 253.508 134.153 
46259 41.4513 20.1234 
46761 86.9925 22.4045 
47262 81.3246 40.0509 
47763 354.074 55.1826 
48264 132.244 59.8417 
50765 0.976386 88.9474 
51264 63.8327 42.5709 
39761 116.578 106.636 
41754 68.4698 10.8675 
42252 71.3932 85.9104 
44254 160.604 83.9335 
45256 145.48 89.645 
48764 94.482 72.1904 
49264 133.056 29.3716 
49765 105.974 12.9016 
53252 29.0374 22.6782 
40756 120.076 76.1113 
41753 98.4624 19.7839 
42752 73.1417 45.31 
44755 459.171 88.342 
47260 94.7472 28.6724 
49764 80.9065 169.793 
50263 97.9092 152.061 
50764 20.7466 87.0015 
51263 47.1255 60.7659 
52756 32.5501 65.2478 
40257 49.5974 73.9281 
40755 39.5235 0.80589 
41253 142.033 12.7344 
42251 35.9572 111.497 
44253 264.183 41.5909 
48763 121.108 175.452 
51262 37.7293 85.2231 
51761 28.5915 45.3336 
52755 38.8296 23.8416 
53251 51.4914 67.119 
38272 22.2012 32.8433 
39262 117.339 84.4876 
40256 29.6783 53.5912 
41252 62.1319 61.2599 
41752 98.9307 53.2776 
43250 57.1311 62.9511 
44252 61.804 41.2697 
49262 216.579 64.9886 
50262 206.058 143.561 
51261 101.899 95.3978 
38271 157.11 20.6078 
38767 101.641 77.0209 
39758 133.093 66.4551 
40255 9.13721 25.7666 
40754 1.87392 45.0945 
41751 134.641 62.8571 
42750 313.496 130.711 
47760 37.6562 8.7033 
50762 51.8995 52.8705 
51760 80.2619 194.629 
52754 25.507 356.568 
41251 35.7555 52.8777 
41750 117.093 101.038 
43249 170.11 56.8586 
47257 56.0665 13.9338 
50761 40.3379 51.9475 
52753 31.8984 145.411 
53249 35.1754 91.2678 
53745 30.1375 447.985 
38765 60.9877 46.3355 
39260 39.5212 31.3078 
39757 26.3187 49.2803 
40254 17.654 15.1387 
53248 40.0934 212.179 
54238 75.135 218.063 
54732 181.387 149.581 
38269 173.071 169.571 
40253 25.6989 67.3686 
41749 141.27 74.8195 
45753 77.022 412.298 
46756 140.416 179.876 
50760 92.181 22.9086 
51758 129.093 103.562 
53744 85.0067 280.974 
54237 71.4782 133.871 
37776 19.3762 127.475 
38764 37.6173 167.879 
51757 196.283 56.6617 
53743 31.7571 478.132 
54731 165.325 40.6626 
55715 116.868 92.5409 
37282 28.6377 459.706 
38268 164.551 216.788 
38763 148.971 98.9259 
39755 37.206 130.833 
50758 82.9635 92.3098 
52253 126.332 191.307 
53246 58.5607 107.082 
54236 50.8094 212.583 
55222 192.211 180.207 
36791 136.648 67.0099 
37281 72.8499 162.979 
37775 102.399 244.377 
40750 293.658 51.003 
50257 136.609 118.588 
53742 77.8397 238.076 
54730 93.9989 371.28 
55714 107.811 225.502 
36790 219.478 72.9517 
38762 118.54 213.239 
39256 265.808 247.032 
52749 55.0907 74.3466 
53741 163.2 177.469 
54235 249.453 333.569 
54729 86.9451 54.0508 
55221 56.9709 66.2642 
37280 37.3359 118.284 
38266 41.9894 336.679 
54234 90.9964 147.456 
36789 118.32 191.921 
37279 34.6095 155.186 
38265 87.8151 236.568 
52250 1.57553 66.1553 
53740 137.94 240.734 
55219 44.4726 363.179 
36788 44.6805 67.1161 
39254 237.396 79.4061 
52747 99.6122 119.86 
54727 35.9671 420.046 
55711 52.5928 106.695 
35807 3.2208 243.021 
36787 33.0111 157.39 
37771 97.7867 297.464 
38264 162.641 359.418 
38759 109.548 110.924 
53738 171.107 252.466 
55218 78.8642 251.98 
55710 65.9333 87.936 
56200 149.028 159.07 
36295 56.7293 66.7741 
37277 167.546 216.951 
38263 183.574 204.003 
39253 59.0712 419.396 
52746 86.9157 86.8938 
54726 34.1594 91.8865 
55217 51.8075 135.573 
56199 84.5746 124.625 
35806 118.298 141.842 
36786 109.833 189.263 
37770 166.737 146.163 
54230 104.073 113.263 
55709 6.50045 63.3072 
56689 102.256 195.918 
36785 281.446 194.91 
54724 137.251 115.685 
55216 5.57453 23.3093 
37275 242.144 205.876 
55215 7.24571 156.979 
55707 35.6779 69.7669 
56197 59.0591 140.058 
36292 11.1487 82.0893 
36784 189.025 124.184 
37274 194.023 186.815 
37768 189.792 74.1589 
56196 35.4319 24.9289 
35803 100.236 111.743 
36783 76.7969 185.636 
37767 322.25 194.716 
40243 91.4783 195.949 
55706 206.527 74.7388 
36291 6.55484 129.405 
37273 90.1274 316.674 
55213 292.105 91.1517 
55705 52.9857 28.0294 
35802 108.974 112.091 
36290 5.6588 43.7234 
36782 29.8887 308.659 
37272 21.2105 305.984 
56194 32.7006 125.097 
36781 7.28584 48.5749 
38753 79.1016 223.011 
40241 47.91 52.7699 
54720 20.2237 263.545 
55704 22.0104 55.0889 
56684 51.1815 59.5195 
36289 8.86761 46.0132 
36780 17.7898 9.78204 
37271 31.8823 247.629 
37764 9.17191 13.2352 
38257 22.7144 71.0249 
53731 41.2663 66.3382 
54225 24.3495 56.0594 
54719 6.03955 18.1048 
55211 38.4687 9.65592 
55703 62.9011 51.3992 
56193 45.2549 125.616 
37270 34.5923 38.7772 
51744 20.1571 362.026 
54224 50.8799 39.837 
55210 84.4765 96.7616 
56192 13.5013 37.9485 
37763 15.132 11.0669 
52240 3.81981 277.377 
54718 31.4277 139.369 
55209 24.7862 45.9734 
37269 16.1281 29.5168 
37762 1.06865 27.9084 
38255 64.7982 34.4837 
38750 156.816 118.849 
54717 26.2193 26.121 
55701 7.17873 40.3752 
36777 32.8023 50.7395 
37268 11.5636 18.39 
52239 16.6179 40.279 
55208 3.40219 22.8524 
56190 8.89478 73.3867 
36285 28.8258 56.2334 
37267 8.38306 6.2191 
37761 15.573 14.6944 
38253 17.3318 78.0264 
53231 26.6346 37.0025 
54221 52.8798 33.062 
54716 15.534 17.3607 
55207 22.4533 21.2194 
55700 11.6439 19.7481 
36776 8.6975 74.599 
37760 11.6913 19.9398 
39242 36.8223 50.8184 
51741 17.3153 12.22 
52735 55.6677 30.4384 
53230 25.1347 36.7187 
53727 47.8985 36.357 
54220 65.6497 39.9536 
54715 65.1975 1.46484 
55699 43.2235 22.0264 
37266 21.4088 13.0111 
37759 12.5998 22.7638 
38252 21.6975 30.4604 
38747 34.4715 29.9485 
52734 5.74543 31.2865 
53726 45.2498 49.9747 
55206 139.49 46.9884 
38251 29.5311 10.2374 
39738 23.3014 25.8756 
53229 34.948 17.458 
37264 67.7143 133.735 
37758 43.3102 23.7868 
38746 16.5608 43.8612 
39240 56.7661 21.748 
40732 27.7311 12.3579 
41230 3.51122 18.5834 
51239 32.102 21.7358 
52733 16.2247 45.0952 
54218 65.8472 23.5878 
37757 11.7067 131.58 
38250 13.1202 22.0891 
38745 49.6059 21.5618 
39737 11.238 22.916 
41229 25.6948 5.93429 
51238 69.5749 4.72805 
53227 28.4712 26.1551 
53724 50.6143 58.5789 
54712 56.4948 26.805 
37263 29.425 71.9063 
38249 83.8404 21.4249 
39736 38.0461 5.76665 
40233 18.8681 8.84893 
52731 6.68259 22.8772 
53723 61.1231 109.613 
54217 32.9723 25.2147 
54711 69.8339 10.4368 
55203 53.5752 37.4596 
37756 49.202 103.574 
39238 122.065 66.387 
40232 25.5474 25.4478 
41727 60.6897 49.8371 
42226 51.5329 56.9572 
51237 42.5793 47.7289 
52233 55.6671 37.288 
53226 2.41172 66.1027 
54216 126.978 26.3023 
39735 10.524 74.5823 
40730 3.44879 8.41944 
42225 50.0601 59.4264 
50237 70.4025 63.2134 
50738 80.878 70.4369 
52232 22.7913 19.8696 
52730 9.48435 19.6168 
53225 28.4043 71.4775 
38742 76.2597 40.7546 
39237 86.978 68.0447 
39734 12.6163 140.84 
41227 44.1378 73.6505 
42725 45.0375 55.5914 
43726 106.203 44.296 
45730 124.393 19.3588 
49236 110.924 26.8793 
49737 100.401 14.987 
51735 24.6213 35.7427 
52729 27.4261 14.6981 
38246 31.7641 77.2821 
40230 48.139 32.3479 
40728 98.7365 28.1873 
41725 50.7362 13.6305 
42724 56.0215 38.3639 
43224 98.1073 35.2935 
45228 165.843 33.7202 
45729 152.175 30.1889 
47233 77.6595 36.402 
48736 100.203 29.1795 
49736 84.0529 20.6404 
50236 52.7501 28.0411 
51235 24.9989 27.2073 
51734 4.29948 15.5057 
52231 47.7579 39.9101 
53720 55.1852 27.6079 
43223 99.8428 26.7858 
43724 108.532 33.2736 
45227 285.837 70.5667 
47232 86.8535 34.9969 
51234 1.21423 33.2847 
52230 51.4916 47.4227 
39234 19.6002 480.167 
39732 9.3545 366.749 
40228 76.4938 97.9515 
41724 5.20177 75.8888 
42222 42.4635 13.5092 
45728 62.9936 55.3791 
46228 40.1237 12.4995 
47733 125.652 21.211 
48233 104.144 21.3662 
48735 86.0398 23.0041 
49234 85.2035 19.8644 
49735 132.18 35.307 
50735 20.7552 5.69334 
51733 15.3654 38.7496 
41723 3.13969 122.543 
42722 60.0895 59.6185 
43222 85.0368 16.6801 
43723 47.6874 36.8987 
44224 96.567 31.348 
46730 78.1386 27.868 
47732 136.133 35.8152 
48734 57.5226 7.23501 
49734 27.1527 23.5105 
51233 31.2863 13.3365 
51732 46.9908 120.249 
52229 43.7936 87.3706 
40227 15.1289 40.0935 
42221 36.8204 60.9522 
45225 102.574 19.6591 
46227 49.192 13.8662 
47230 125.168 42.1455 
48232 167.762 30.3963 
49233 31.0165 11.6562 
41722 1.27091 184.905 
43220 131.525 12.9644 
43722 51.7222 4.65052 
44222 74.9299 33.3285 
44724 99.5272 62.3111 
45726 71.0029 39.2577 
46226 10.0436 27.6483 
46729 69.8537 8.11999 
47229 99.017 38.8013 
48733 153.178 8.38791 
49232 51.3315 18.1571 
50232 53.5306 19.4655 
42720 60.8904 60.7659 
44723 189.704 35.8707 
46728 37.4653 24.3186 
47730 117.62 53.8733 
48732 108.737 9.97336 
49732 59.0524 29.6685 
43219 68.4637 38.5853 
46727 54.713 10.5307 
47228 90.9077 40.9915 
45724 39.229 13.5403 
48270 48.6486 116.271 
46767 185.269 60.6157 
47769 531.652 260.733 
49771 57.4252 19.7391 
42258 59.0753 227.902 
44761 58.7062 23.8049 
45262 61.1408 180.966 
47768 279.191 307.895 
48269 249.342 16.4206 
49270 71.4347 19.8508 
42757 130.27 108.77 
43257 366.456 48.2652 
44259 31.26 16.5118 
45261 58.5231 211.156 
45763 42.9969 150.897 
46263 43.7326 113.964 
47266 131.608 155.733 
48268 176.121 95.7333 
49769 181.066 86.8955 
50269 74.4946 66.1844 
41758 22.8879 132.216 
43758 87.6909 8.98096 
44258 88.1907 45.7728 
45260 95.3942 45.1242 
45762 128.156 155.85 
47265 73.3922 74.8431 
47767 151.872 184.878 
48267 102.638 68.7213 
50268 196.506 129.261 
51267 121.02 299.983 
40262 216.681 214.667 
41757 5.35417 139.18 
42756 103.898 104.975 
43256 156.784 42.0205 
44759 118.831 18.5538 
49268 170.778 27.5786 
49768 149.555 71.0949 
52263 168.741 12.6457 
39267 369.467 114.172 
41257 5.86189 127.539 
42255 184.595 104.1 
44257 93.1552 83.3196 
45760 187.287 98.9634 
46261 66.58 47.7881 
48266 85.7271 49.5972 
49767 224.439 42.9541 
51266 140.122 139.015 
52262 26.076 7.08508 
38772 216.265 67.3427 
40260 148.604 199.82 
40759 14.0321 234.933 
41256 49.949 100.654 
42254 85.6924 19.5099 
42755 66.0137 52.0283 
44256 151.021 248.681 
45258 137.668 96.9208 
46260 53.7658 16.7527 
47765 295.181 148.047 
48767 56.7445 42.6391 
51765 66.192 121.793 
52759 101.977 35.6904 
53255 81.7119 32.864 
53751 293.588 96.5607 
40259 23.6404 96.3206 
40758 37.0962 142.369 
41755 3.03068 12.4272 
42754 159.734 90.0962 
43755 163.509 257.865 
45759 99.5023 60.4406 
47764 244.046 204.459 
49766 208.242 83.8911 
51764 78.475 122.546 
39762 37.9698 343.299 
42253 100.064 72.7317 
45257 134.494 81.8403 
49265 106.88 45.6055 
50265 94.1145 36.5805 
52758 94.8212 44.7249 
53253 64.0752 67.6747 
54243 56.5549 87.3952 
39264 414.243 187.018 
40258 68.7519 136.21 
41254 156.623 38.7541 
50264 103.639 3.89917 
51763 128.935 131.349 
52260 47.1881 119.155 
52757 64.8787 91.4057 
53749 41.4087 14.7801 
54737 121.413 124.56 
38769 195.554 22.9519 
51762 68.2708 67.1958 
52259 77.6482 78.667 
53748 113.256 29.7154 
54736 80.238 109.99 
55228 87.6548 198.717 
37780 80.9049 137.751 
38273 139.364 33.9775 
38768 85.8479 111.833 
39263 334.522 119.862 
39760 113.012 176.389 
52258 29.331 10.4505 
55720 44.4216 64.1597 